FoamFile
{
format          ascii;
class           volVectorField;
location        "0";
object          U;
}

// * * * * * * * * * * * * * * * * * * * * * * * * * * * * * * * * * * * * * //

dimensions      [0 1 -1 0 0 0 0];

internalField   nonuniform List<vector>
2000
(
(1.12529 -0.9477 0.0000000000000000000797515)
(1.11369 -0.789056 0)
(1.10468 -0.666733 0.0000000000000000000141087)
(1.09757 -0.570395 0.000000000000000000000000012172)
(1.09189 -0.493145 -0.0000000000000000000410963)
(1.08731 -0.430244 0.0000000000000000000370846)
(1.0836 -0.378355 -0.0000000000000000000496257)
(1.08058 -0.335066 -0.0000000000000000000528499)
(1.07811 -0.298564 0)
(1.07608 -0.267325 0.0000000000000000000537693)
(1.27379 -0.925097 0.0000000000000000000850773)
(1.23764 -0.77015 0.00000000000000000000437488)
(1.20974 -0.65071 0)
(1.18779 -0.55667 0)
(1.17022 -0.481286 0)
(1.15596 -0.419924 0.0000000000000000000624347)
(1.14424 -0.369317 -0.000000000000000000107309)
(1.1345 -0.327112 -0.0000000000000000000482982)
(1.12634 -0.291575 0.000000000000000000109465)
(1.11953 -0.261404 0.000000000000000000108241)
(1.41699 -0.879619 0.0000000000000000000904107)
(1.35714 -0.732192 0.0000000000000000000834685)
(1.31102 -0.618572 0)
(1.27474 -0.529128 0.000000000000000000059366)
(1.24571 -0.457434 0.0000000000000000000367369)
(1.22211 -0.399073 -0.000000000000000000037638)
(1.20265 -0.350936 -0.000000000000000000043524)
(1.18639 -0.310795 0.0000000000000000000434448)
(1.17259 -0.277046 0.000000000000000000167956)
(1.16064 -0.248577 0.0000000000000000000475023)
(1.55135 -0.812349 0.0000000000000000000947158)
(1.46925 -0.676093 0.000000000000000000174668)
(1.40601 -0.571095 0)
(1.3563 -0.48844 0.0000000000000000000765255)
(1.31652 -0.422177 0.0000000000000000000579058)
(1.2842 -0.368211 -0.0000000000000000000166004)
(1.25755 -0.323651 0)
(1.2353 -0.286398 0.0000000000000000000383496)
(1.21646 -0.254893 0.0000000000000000000387482)
(1.20026 -0.227921 0)
(1.67354 -0.724922 -0.0000000000000000000494279)
(1.57118 -0.603217 0.0000000000000000000877552)
(1.49239 -0.509439 -0.00000000000000000000439537)
(1.43047 -0.435613 0.0000000000000000000110198)
(1.38094 -0.376414 -0.0000000000000000000256754)
(1.34072 -0.328175 0.0000000000000000000512501)
(1.3076 -0.288296 0.0000000000000000000154839)
(1.28001 -0.254889 -0.0000000000000000000181954)
(1.25676 -0.22654 -0.0000000000000000000489087)
(1.23697 -0.202159 -0.00000000000000000000316981)
(1.78052 -0.619471 -0.000000000000000000051964)
(1.66042 -0.515351 -0.00000000000000000000247205)
(1.568 -0.435126 -0.00000000000000000000364509)
(1.49539 -0.371966 -0.00000000000000000000457011)
(1.43735 -0.321308 -0.0000000000000000000499542)
(1.39024 -0.280011 0.0000000000000000000640582)
(1.3515 -0.245847 0)
(1.31929 -0.2172 0.000000000000000000000538142)
(1.29223 -0.192867 -0.0000000000000000000349272)
(1.26933 -0.171937 0.0000000000000000000335697)
(1.8696 -0.498593 0)
(1.73472 -0.414658 -0.0000000000000000000483444)
(1.63096 -0.349989 0.00000000000000000000286935)
(1.54947 -0.299073 -0.0000000000000000000391323)
(1.48434 -0.258232 0.0000000000000000000407554)
(1.43151 -0.22493 0.0000000000000000000387861)
(1.3881 -0.197373 -0.000000000000000000037834)
(1.35205 -0.174261 0.0000000000000000000363133)
(1.32182 -0.154634 -0.0000000000000000000109355)
(1.29629 -0.137771 -0.0000000000000000000469235)
(1.93857 -0.365267 -0.000000000000000000000270372)
(1.79224 -0.303624 -0.0000000000000000000491578)
(1.67969 -0.256131 -0.00000000000000000000207309)
(1.59132 -0.218739 -0.0000000000000000000267602)
(1.52072 -0.188744 0.0000000000000000000412745)
(1.46346 -0.164285 0.00000000000000000000337133)
(1.41645 -0.144047 -0.0000000000000000000382436)
(1.37742 -0.127078 0.00000000000000000000390541)
(1.34472 -0.112678 0.0000000000000000000320394)
(1.31713 -0.100324 -0.0000000000000000000346972)
(1.98568 -0.222798 0.0000000000000000000000822716)
(1.83153 -0.184993 -0.000000000000000000012471)
(1.71298 -0.155867 0)
(1.61991 -0.132938 0.0000000000000000000219655)
(1.54557 -0.114546 0)
(1.48529 -0.0995528 0.0000000000000000000090605)
(1.43581 -0.0871516 -0.0000000000000000000108599)
(1.39474 -0.076761 0)
(1.36034 -0.0679529 0.00000000000000000000922576)
(1.33132 -0.0604081 0.00000000000000000000892298)
(2.00975 -0.0747161 0)
(1.8516 -0.0617033 -0.0000000000000000000125411)
(1.72999 -0.0516776 -0.0000000000000000000000551661)
(1.63452 -0.0437867 -0.0000000000000000000000691818)
(1.55826 -0.0374616 -0.0000000000000000000000000000000000187568)
(1.49644 -0.0323112 0.00000000000000000000976752)
(1.44568 -0.0280592 -0.0000000000000000000101703)
(1.40357 -0.0245067 0.000000000000000000000207461)
(1.3683 -0.021508 0.00000000000000000000969156)
(1.33853 -0.0189531 -0.00000000000000000000905234)
(0.101122 -0.0741427 0)
(0.25757 -0.0617803 0.000000000000000000000554289)
(0.377895 -0.0522274 0)
(0.472336 -0.0446901 0)
(0.547744 -0.0386362 0)
(0.60885 -0.0336998 -0.000000000000000000000551356)
(0.659005 -0.0296238 0.000000000000000000000550487)
(0.700643 -0.0262243 -0.0000000000000000000047371)
(0.735566 -0.023368 -0.00000000000000000000552326)
(0.765143 -0.0209587 0.00000000000000000000572362)
(0.124369 -0.220625 -0.000000000000000000000661193)
(0.277025 -0.183836 0.00000000000000000000138917)
(0.394422 -0.155409 0)
(0.486555 -0.132977 -0.00000000000000000000281152)
(0.560111 -0.114957 0)
(0.619701 -0.10026 -0.00000000000000000000100676)
(0.668593 -0.08812 0.000000000000000000000950748)
(0.709154 -0.0779878 0)
(0.743138 -0.0694644 -0.000000000000000000000864354)
(0.771863 -0.0622559 -0.00000000000000000000163882)
(0.170307 -0.361762 0.00000000000000000000130725)
(0.315467 -0.301426 0.00000000000000000000994056)
(0.427081 -0.254804 0.0000000000000000000100062)
(0.514658 -0.218011 0.0000000000000000000300511)
(0.584559 -0.188449 -0.00000000000000000000866563)
(0.641165 -0.164328 -0.0000000000000000000161759)
(0.687575 -0.144389 0.0000000000000000000256713)
(0.726035 -0.127729 -0.000000000000000000000000000801827)
(0.758206 -0.113691 0.0000000000000000000117611)
(0.785348 -0.101788 0.0000000000000000000859831)
(0.237845 -0.494135 0)
(0.371979 -0.411692 0.0000000000000000000132043)
(0.475092 -0.347992 -0.00000000000000000000983359)
(0.555982 -0.297719 -0.000000000000000000000948942)
(0.620525 -0.257314 -0.0000000000000000000107082)
(0.672764 -0.224327 -0.0000000000000000000114178)
(0.715554 -0.197031 0.00000000000000000000972068)
(0.750953 -0.174188 -0.0000000000000000000107802)
(0.780484 -0.1549 0.0000000000000000000399515)
(0.805296 -0.138512 0.0000000000000000000487242)
(0.325369 -0.614521 0.0000000000000000000212725)
(0.445206 -0.511948 0.00000000000000000000651859)
(0.537304 -0.432703 0.00000000000000000000960406)
(0.609539 -0.370161 0.0000000000000000000120277)
(0.667163 -0.319881 0.0000000000000000000428603)
(0.713784 -0.278803 0.00000000000000000000352015)
(0.751935 -0.244768 0)
(0.783435 -0.216222 0.00000000000000000000140503)
(0.809609 -0.192039 0.0000000000000000000117317)
(0.831447 -0.171402 0.0000000000000000000652253)
(0.430781 -0.719973 0.0000000000000000000224978)
(0.533381 -0.599741 -0.0000000000000000000357718)
(0.612212 -0.506871 0.00000000000000000000931787)
(0.674035 -0.433577 -0.0000000000000000000233428)
(0.723358 -0.374644 0.0000000000000000000168849)
(0.763267 -0.326468 0.0000000000000000000140742)
(0.795924 -0.286496 0)
(0.822858 -0.252876 -0.0000000000000000000199029)
(0.845157 -0.224256 -0.00000000000000000000488597)
(0.863582 -0.199643 -0.0000000000000000000139571)
(0.551544 -0.807893 -0.0000000000000000000529645)
(0.634368 -0.672911 -0.0000000000000000000971864)
(0.697985 -0.568676 0)
(0.747885 -0.486429 -0.0000000000000000000436672)
(0.787721 -0.420301 -0.0000000000000000000156143)
(0.819998 -0.36623 0.0000000000000000000290836)
(0.846474 -0.321324 0)
(0.868386 -0.283461 -0.0000000000000000000671293)
(0.886585 -0.251045 -0.0000000000000000000733386)
(0.90159 -0.222852 0)
(0.684732 -0.87609 -0.0000000000000000000598892)
(0.745707 -0.729643 -0.0000000000000000000664842)
(0.79252 -0.616592 -0.0000000000000000000171518)
(0.829249 -0.527423 -0.0000000000000000000263737)
(0.858612 -0.45576 -0.0000000000000000000204112)
(0.882483 -0.397192 0)
(0.902203 -0.348571 0.000000000000000000044035)
(0.918757 -0.307567 0)
(0.932882 -0.272373 -0.000000000000000000148375)
(0.94509 -0.241481 -0.0000000000000000000706525)
(0.827101 -0.922836 -0.0000000000000000000650404)
(0.864672 -0.768503 0)
(0.893486 -0.649413 0)
(0.916093 -0.555529 0)
(0.9342 -0.480136 0)
(0.948994 -0.418604 -0.0000000000000000000506665)
(0.961355 -0.367648 0.000000000000000000103933)
(0.972002 -0.32487 0.0000000000000000000609544)
(0.981653 -0.288448 -0.000000000000000000108151)
(0.991274 -0.256873 -0.000000000000000000112648)
(0.975162 -0.94692 -0.0000000000000000000733659)
(0.988342 -0.788487 0)
(0.998395 -0.666283 -0.000000000000000000015226)
(1.00626 -0.569996 0.0000000000000000000000000112381)
(1.01258 -0.492742 0.0000000000000000000443534)
(1.01778 -0.429794 -0.0000000000000000000288495)
(1.02217 -0.377839 0.0000000000000000000535728)
(1.02594 -0.334551 0.0000000000000000000570591)
(1.02917 -0.298378 0)
(1.03167 -0.268541 -0.0000000000000000000473913)
(0.789654 -0.0185604 0.00000000000000000000533129)
(0.811576 -0.0158441 -0.00000000000000000000549212)
(0.830413 -0.0135626 -0.00000000000000000000562023)
(0.84664 -0.0116368 0)
(0.860651 -0.0100074 0)
(0.872778 -0.00862654 0.00000000000000000000591014)
(0.883299 -0.00745425 0.0000000000000000000119642)
(0.892448 -0.00645541 0.0000000000000000000120891)
(0.900419 -0.00559854 0.0000000000000000000121978)
(0.907369 -0.00485566 0.00000000000000000000614444)
(0.913424 -0.00420303 -0.000000000000000000003094)
(0.918682 -0.00362083 -0.00000000000000000000311184)
(0.923218 -0.00309352 -0.00000000000000000000000342019)
(0.927092 -0.00260869 0.00000000000000000000314074)
(0.930346 -0.00215699 0.00000000000000000000315179)
(0.933016 -0.00173078 -0.00000000000000000000000463854)
(0.935125 -0.00132414 -0.00000000000000000000158412)
(0.936691 -0.000931704 -0.00000000000000000000158677)
(0.937725 -0.000548952 0)
(0.938232 -0.000171079 0)
(0.795446 -0.0552689 0.0000000000000000000000320277)
(0.81632 -0.04724 0)
(0.834346 -0.0404555 -0.0000000000000000000223869)
(0.849931 -0.0347247 0.0000000000000000000000176398)
(0.863434 -0.0298747 0.0000000000000000000232464)
(0.875163 -0.0257662 -0.0000000000000000000000216598)
(0.885379 -0.0222804 0.0000000000000000000000285775)
(0.894301 -0.0193108 -0.0000000000000000000000105052)
(0.902106 -0.0167612 0)
(0.908936 -0.0145469 0.00000000000000000000000637435)
(0.914903 -0.0125969 -0.00000000000000000000000164569)
(0.920091 -0.0108533 0)
(0.92457 -0.00927121 0.00000000000000000000625808)
(0.928391 -0.00781519 -0.00000000000000000000000189656)
(0.931596 -0.00645855 -0.00000000000000000000630653)
(0.93422 -0.0051795 -0.00000000000000000000000172533)
(0.936287 -0.00396074 0)
(0.937818 -0.00278655 0)
(0.938825 -0.00164331 0)
(0.939317 -0.000516641 -0.0000000000000000000000227215)
(0.807292 -0.0908208 0.0000000000000000000000170951)
(0.826133 -0.0777549 -0.0000000000000000000866405)
(0.842512 -0.0666195 0.0000000000000000000000204405)
(0.856767 -0.0572183 0.0000000000000000000452562)
(0.869211 -0.0492681 0.00000000000000000000000870671)
(0.880113 -0.0425435 -0.0000000000000000000235443)
(0.8897 -0.0368449 -0.0000000000000000000237234)
(0.898155 -0.0319885 0)
(0.905617 -0.0278083 -0.0000000000000000000000152867)
(0.912191 -0.0241624 0)
(0.917958 -0.020936 0.00000000000000000000000918947)
(0.922983 -0.0180384 0.00000000000000000000000187065)
(0.927319 -0.0154012 0.00000000000000000000000648962)
(0.931009 -0.0129712 0)
(0.934095 -0.0107079 0.0000000000000000000000146768)
(0.93661 -0.00857781 0.0000000000000000000000183728)
(0.938581 -0.00655334 0)
(0.940033 -0.00460909 0.0000000000000000000000252149)
(0.940981 -0.0027221 0.0000000000000000000000284442)
(0.941438 -0.00086833 0.00000000000000000000000942086)
(0.824978 -0.124458 0)
(0.840769 -0.10678 -0.000000000000000000000151318)
(0.854664 -0.0915281 0.0000000000000000000437386)
(0.866927 -0.0786858 -0.000000000000000000000190755)
(0.877807 -0.0678555 -0.0000000000000000000454985)
(0.887517 -0.058721 -0.0000000000000000000000682793)
(0.896218 -0.0509862 0.0000000000000000000000420748)
(0.904019 -0.0443765 0)
(0.91099 -0.0386537 0.0000000000000000000241846)
(0.917178 -0.0336252 0.0000000000000000000243688)
(0.922624 -0.0291435 -0.0000000000000000000000169507)
(0.927366 -0.0250976 -0.0000000000000000000248957)
(0.931445 -0.0214049 -0.0000000000000000000250108)
(0.934903 -0.0180012 -0.0000000000000000000125813)
(0.937777 -0.0148361 0.0000000000000000000000255623)
(0.940105 -0.0118664 0.000000000000000000012707)
(0.941918 -0.00905441 0.00000000000000000000637356)
(0.943242 -0.00636475 0.00000000000000000000640569)
(0.944098 -0.00376465 0.00000000000000000000315792)
(0.9445 -0.00121996 0.00000000000000000000323078)
(0.848442 -0.155289 0.0000000000000000000809234)
(0.860171 -0.133663 0)
(0.870709 -0.114654 0.000000000000000000000308494)
(0.880349 -0.0987391 0)
(0.889241 -0.0853827 0.0000000000000000000456024)
(0.897487 -0.0741448 0.0000000000000000000457752)
(0.905112 -0.0646015 0.0000000000000000000471269)
(0.912093 -0.0563817 -0.000000000000000000000139132)
(0.918399 -0.0491911 0.000000000000000000000229514)
(0.924015 -0.0428107 -0.000000000000000000000279042)
(0.928948 -0.0370834 -0.0000000000000000000490769)
(0.933225 -0.0318931 0.0000000000000000000000224591)
(0.936884 -0.0271526 0)
(0.939967 -0.0227907 0.0000000000000000000252376)
(0.942516 -0.0187478 0.0000000000000000000253254)
(0.944569 -0.0149699 0.0000000000000000000127129)
(0.946158 -0.0114079 -0.0000000000000000000000190116)
(0.94731 -0.00801458 -0.00000000000000000000645847)
(0.948045 -0.00474626 0.00000000000000000000307218)
(0.948376 -0.00155805 -0.00000000000000000000321253)
(0.877572 -0.18229 0.0000000000000000000797543)
(0.884233 -0.157667 0.0000000000000000000814038)
(0.890578 -0.135493 0.000000000000000000000377252)
(0.89713 -0.117105 0)
(0.903804 -0.101725 -0.0000000000000000000442282)
(0.91043 -0.0887323 -0.0000000000000000000905375)
(0.916785 -0.0775742 0.00000000000000000000057274)
(0.922684 -0.0678275 0.0000000000000000000469891)
(0.928014 -0.0591955 0)
(0.932734 -0.051473 0)
(0.936854 -0.0445153 0.0000000000000000000492912)
(0.940407 -0.0382098 0.0000000000000000000495278)
(0.943437 -0.0324647 0)
(0.945989 -0.0271984 0.00000000000000000000000538845)
(0.9481 -0.0223378 0)
(0.949803 -0.0178142 -0.0000000000000000000000267443)
(0.951121 -0.0135643 0)
(0.952074 -0.00952723 -0.0000000000000000000000550198)
(0.952672 -0.00564738 -0.0000000000000000000000682153)
(0.952925 -0.00186875 0)
(0.912064 -0.20429 -0.000000000000000000000617853)
(0.912789 -0.177994 0.000000000000000000000519981)
(0.914476 -0.153769 -0.000000000000000000000446536)
(0.917908 -0.13377 0.000000000000000000000378517)
(0.922316 -0.116858 -0.000000000000000000000320876)
(0.927054 -0.102309 0)
(0.931666 -0.0895761 0.000000000000000000000227707)
(0.935911 -0.0782978 0.000000000000000000000189161)
(0.939704 -0.0682374 -0.0000000000000000000478243)
(0.943048 -0.0592229 -0.000000000000000000047861)
(0.945978 -0.051118 -0.0000000000000000000000962805)
(0.948534 -0.0438013 -0.0000000000000000000000712899)
(0.950751 -0.0371641 0.0000000000000000000000486285)
(0.952655 -0.0311047 -0.0000000000000000000253154)
(0.954261 -0.0255306 -0.0000000000000000000254019)
(0.955579 -0.0203556 0.00000000000000000000000869697)
(0.956614 -0.0155006 0)
(0.957368 -0.0108918 -0.0000000000000000000000408976)
(0.957837 -0.00646232 0.00000000000000000000654291)
(0.95802 -0.00214595 0.00000000000000000000641843)
(0.951003 -0.220409 -0.000000000000000000000669288)
(0.945826 -0.194187 0)
(0.943551 -0.169777 0.0000000000000000000797168)
(0.94412 -0.148816 0.0000000000000000000818082)
(0.945731 -0.130431 -0.000000000000000000000364945)
(0.947589 -0.11422 0)
(0.949387 -0.0998599 0.0000000000000000000002611)
(0.951068 -0.0871093 0.000000000000000000000217775)
(0.952657 -0.0757707 -0.00000000000000000000017924)
(0.954182 -0.0656649 0.000000000000000000000144886)
(0.955656 -0.0566277 -0.000000000000000000000114156)
(0.957073 -0.0485059 -0.0000000000000000000497171)
(0.958412 -0.0411612 -0.0000000000000000000999763)
(0.959649 -0.0344678 -0.000000000000000000050344)
(0.960757 -0.0283133 0.0000000000000000000000178364)
(0.96171 -0.0225964 0.00000000000000000000000160503)
(0.962484 -0.0172257 0)
(0.963061 -0.0121179 -0.0000000000000000000130343)
(0.963422 -0.00719812 -0.0000000000000000000129717)
(0.963555 -0.00239332 -0.000000000000000000000070186)
(0.991779 -0.2319 0.000000000000000000000375143)
(0.984003 -0.207507 0)
(0.979442 -0.183946 -0.0000000000000000000781642)
(0.97589 -0.161459 -0.0000000000000000000786288)
(0.972635 -0.141206 0.0000000000000000000840177)
(0.969879 -0.123322 0.0000000000000000000847188)
(0.967767 -0.107588 0)
(0.966326 -0.0937385 0)
(0.965498 -0.0815153 0)
(0.965182 -0.0706796 -0.000000000000000000000102514)
(0.965262 -0.0610191 0)
(0.965626 -0.0523462 0)
(0.966172 -0.0444982 -0.0000000000000000000502006)
(0.966814 -0.0373325 -0.0000000000000000000503752)
(0.967479 -0.030725 0)
(0.968106 -0.0245665 0)
(0.968647 -0.0187598 0)
(0.969067 -0.0132173 0.0000000000000000000000110351)
(0.969336 -0.00786152 0.00000000000000000000656271)
(0.969437 -0.00261706 0.00000000000000000000656462)
(1.02413 -0.241344 0.000000000000000000000390563)
(1.01405 -0.218376 0.0000000000000000000703438)
(1.00501 -0.195088 0.0000000000000000000708643)
(0.996243 -0.171207 0.00000000000000000000027225)
(0.989265 -0.149436 0.0000000000000000000807867)
(0.984029 -0.13031 -0.00000000000000000000247418)
(0.980225 -0.113618 -0.000000000000000000171372)
(0.977563 -0.0990198 0.00000000000000000000222401)
(0.975794 -0.0861862 0.0000000000000000000900647)
(0.974709 -0.0748299 -0.000000000000000000000109375)
(0.974135 -0.0647063 0)
(0.97393 -0.0556075 0)
(0.973978 -0.0473565 0.0000000000000000000501201)
(0.974186 -0.039802 -0.000000000000000000000665219)
(0.974478 -0.0328132 -0.0000000000000000000252208)
(0.974796 -0.0262771 0.0000000000000000000257829)
(0.975093 -0.0200934 0)
(0.975335 -0.0141735 -0.00000000000000000000000661331)
(0.975499 -0.00843813 0)
(0.975569 -0.00281273 0)
(1.0517 -0.235582 0)
(1.03261 -0.213708 0)
(1.01605 -0.191984 0)
(1.00331 -0.170002 0)
(0.994549 -0.149532 0)
(0.988797 -0.131181 0)
(0.985119 -0.114929 0)
(0.982838 -0.100559 0)
(0.981494 -0.0878173 0)
(0.980774 -0.0764628 0)
(0.980463 -0.0662793 0)
(0.980412 -0.0570785 0)
(0.980517 -0.0486958 0)
(0.980705 -0.0409891 0)
(0.980926 -0.0338334 0)
(0.981147 -0.0271202 0)
(0.981344 -0.0207522 0)
(0.981504 -0.0146434 0)
(0.981615 -0.00871503 0)
(0.981671 -0.00289407 0)
(1.07469 -0.213604 0)
(1.05315 -0.195053 0)
(1.03598 -0.176893 0)
(1.02255 -0.158917 0)
(1.01245 -0.141745 0)
(1.00506 -0.125816 0)
(0.999731 -0.11128 0)
(0.995926 -0.0981152 0)
(0.99323 -0.086216 0)
(0.991339 -0.0754469 0)
(0.990025 -0.065666 0)
(0.989126 -0.0567368 0)
(0.98852 -0.0485324 0)
(0.988119 -0.0409371 0)
(0.987861 -0.0338461 0)
(0.987699 -0.0271645 0)
(0.987602 -0.0208059 0)
(0.987546 -0.0146914 0)
(0.987517 -0.00874767 0)
(0.987504 -0.00290488 0)
(1.09066 -0.189771 0)
(1.06932 -0.176011 0)
(1.05218 -0.161623 0)
(1.03846 -0.147032 0)
(1.02765 -0.132719 0)
(1.01926 -0.11906 0)
(1.01282 -0.106263 0)
(1.0079 -0.0944078 0)
(1.00416 -0.0834864 0)
(1.00132 -0.0734443 0)
(0.999173 -0.0642021 0)
(0.997546 -0.0556711 0)
(0.996316 -0.0477604 0)
(0.995391 -0.0403814 0)
(0.994699 -0.0334497 0)
(0.994187 -0.0268861 0)
(0.993817 -0.0206157 0)
(0.993562 -0.014569 0)
(0.993401 -0.00867933 0)
(0.993324 -0.00288283 0)
(1.10085 -0.167297 0)
(1.0813 -0.157599 0)
(1.06496 -0.146558 0)
(1.05146 -0.134871 0)
(1.04043 -0.123044 0)
(1.03152 -0.111443 0)
(1.02438 -0.100308 0)
(1.0187 -0.0897683 0)
(1.01419 -0.0798795 0)
(1.01062 -0.0706429 0)
(1.0078 -0.0620281 0)
(1.00557 -0.053986 0)
(1.00381 -0.0464575 0)
(1.00243 -0.039379 0)
(1.00136 -0.0326859 0)
(1.00053 -0.0263145 0)
(0.999919 -0.0202025 0)
(0.999482 -0.0142897 0)
(0.999203 -0.0085179 0)
(0.999066 -0.00283001 0)
(1.10751 -0.147375 0)
(1.09006 -0.140531 0)
(1.07491 -0.132141 0)
(1.06197 -0.122853 0)
(1.05108 -0.113144 0)
(1.042 -0.103364 0)
(1.03449 -0.0937572 0)
(1.02833 -0.0844802 0)
(1.02329 -0.0756217 0)
(1.01918 -0.0672209 0)
(1.01583 -0.0592825 0)
(1.01312 -0.0517882 0)
(1.01092 -0.0447052 0)
(1.00916 -0.0379916 0)
(1.00776 -0.0316009 0)
(1.00667 -0.0254838 0)
(1.00584 -0.0195902 0)
(1.00525 -0.0138697 0)
(1.00486 -0.00827266 0)
(1.00467 -0.00274937 0)
(1.11207 -0.129923 0)
(1.09654 -0.125011 0)
(1.08264 -0.118622 0)
(1.07045 -0.111257 0)
(1.05991 -0.103316 0)
(1.0509 -0.0951128 0)
(1.04327 -0.0868782 0)
(1.03684 -0.0787743 0)
(1.03145 -0.0709069 0)
(1.02696 -0.0633371 0)
(1.02323 -0.0560933 0)
(1.02014 -0.0491796 0)
(1.01761 -0.0425838 0)
(1.01553 -0.0362818 0)
(1.01386 -0.0302426 0)
(1.01254 -0.0244299 0)
(1.01153 -0.0188048 0)
(1.0108 -0.0133265 0)
(1.01032 -0.0079537 0)
(1.01009 -0.00264419 0)
(1.11527 -0.114534 0)
(1.10136 -0.110969 0)
(1.08867 -0.106081 0)
(1.07728 -0.100235 0)
(1.06722 -0.0937514 0)
(1.05844 -0.0868934 0)
(1.05083 -0.0798687 0)
(1.0443 -0.0728326 0)
(1.03873 -0.0658949 0)
(1.03399 -0.0591279 0)
(1.02999 -0.0525742 0)
(1.02663 -0.0462536 0)
(1.02382 -0.0401687 0)
(1.0215 -0.0343096 0)
(1.01962 -0.0286579 0)
(1.01811 -0.0231885 0)
(1.01695 -0.0178726 0)
(1.0161 -0.0126781 0)
(1.01554 -0.00757145 0)
(1.01527 -0.0025179 0)
(1.11751 -0.100839 0)
(1.10499 -0.0982476 0)
(1.09337 -0.0944969 0)
(1.08278 -0.0898518 0)
(1.07326 -0.0845607 0)
(1.06479 -0.0788405 0)
(1.05733 -0.0728706 0)
(1.05081 -0.0667924 0)
(1.04516 -0.0607121 0)
(1.04028 -0.0547053 0)
(1.03611 -0.0488222 0)
(1.03255 -0.0430919 0)
(1.02955 -0.0375277 0)
(1.02704 -0.0321302 0)
(1.02499 -0.0268908 0)
(1.02333 -0.0217939 0)
(1.02204 -0.0168189 0)
(1.0211 -0.0119418 0)
(1.02048 -0.00713612 0)
(1.02018 -0.00237385 0)
(1.11904 -0.0885525 0)
(1.10771 -0.086685 0)
(1.09706 -0.0838067 0)
(1.08722 -0.0801136 0)
(1.07823 -0.0757984 0)
(1.07013 -0.0710369 0)
(1.06288 -0.0659805 0)
(1.05646 -0.060754 0)
(1.05081 -0.0554555 0)
(1.04588 -0.0501591 0)
(1.0416 -0.0449171 0)
(1.03792 -0.0397641 0)
(1.03478 -0.03472 0)
(1.03214 -0.0297928 0)
(1.02995 -0.0249813 0)
(1.02818 -0.0202773 0)
(1.0268 -0.0156674 0)
(1.02578 -0.0111341 0)
(1.02511 -0.00665738 0)
(1.02478 -0.00221525 0)
(1.12005 -0.0774538 0)
(1.10973 -0.0761323 0)
(1.09995 -0.0739303 0)
(1.09079 -0.0709967 0)
(1.08233 -0.0674819 0)
(1.0746 -0.0635275 0)
(1.06761 -0.05926 0)
(1.06134 -0.0547871 0)
(1.05575 -0.0501967 0)
(1.05082 -0.0455581 0)
(1.0465 -0.0409228 0)
(1.04275 -0.0363274 0)
(1.03952 -0.0317953 0)
(1.03678 -0.0273395 0)
(1.0345 -0.0229641 0)
(1.03264 -0.0186666 0)
(1.03119 -0.0144392 0)
(1.03011 -0.0102699 0)
(1.0294 -0.00614403 0)
(1.02905 -0.00204499 0)
(1.12067 -0.0673677 0)
(1.11123 -0.0664591 0)
(1.1022 -0.0647848 0)
(1.09367 -0.0624604 0)
(1.0857 -0.0596043 0)
(1.07835 -0.0563308 0)
(1.07162 -0.0527445 0)
(1.06552 -0.0489371 0)
(1.06004 -0.0449859 0)
(1.05515 -0.0409534 0)
(1.05083 -0.0368885 0)
(1.04705 -0.0328271 0)
(1.04377 -0.0287942 0)
(1.04097 -0.0248056 0)
(1.03862 -0.020869 0)
(1.03671 -0.0169859 0)
(1.03519 -0.0131528 0)
(1.03408 -0.00936216 0)
(1.03334 -0.00560385 0)
(1.03297 -0.00186567 0)
(1.121 -0.0581495 0)
(1.11232 -0.0575507 0)
(1.10394 -0.0562888 0)
(1.09597 -0.054455 0)
(1.08846 -0.0521434 0)
(1.08146 -0.0494462 0)
(1.075 -0.0464495 0)
(1.0691 -0.0432306 0)
(1.06374 -0.039856 0)
(1.05892 -0.0363811 0)
(1.05463 -0.0328504 0)
(1.05084 -0.029298 0)
(1.04754 -0.0257488 0)
(1.04471 -0.0222196 0)
(1.04232 -0.0187204 0)
(1.04036 -0.0152552 0)
(1.03881 -0.0118238 0)
(1.03766 -0.00842211 0)
(1.0369 -0.00504353 0)
(1.03652 -0.00167952 0)
(1.12112 -0.0496752 0)
(1.11309 -0.0493045 0)
(1.10529 -0.0483643 0)
(1.09781 -0.0469269 0)
(1.09071 -0.0450676 0)
(1.08404 -0.0428606 0)
(1.07784 -0.0403764 0)
(1.07212 -0.0376794 0)
(1.06689 -0.034826 0)
(1.06216 -0.0318643 0)
(1.05791 -0.0288338 0)
(1.05415 -0.0257656 0)
(1.05085 -0.0226833 0)
(1.048 -0.0196037 0)
(1.04559 -0.0165375 0)
(1.0436 -0.0134907 0)
(1.04203 -0.010465 0)
(1.04086 -0.00745894 0)
(1.04008 -0.00446861 0)
(1.03969 -0.00148838 0)
(1.12111 -0.0418351 0)
(1.11363 -0.0416272 0)
(1.10632 -0.0409364 0)
(1.09927 -0.0398204 0)
(1.09253 -0.0383389 0)
(1.08616 -0.0365517 0)
(1.08019 -0.0345158 0)
(1.07465 -0.0322842 0)
(1.06955 -0.0299041 0)
(1.06491 -0.0274162 0)
(1.06073 -0.0248547 0)
(1.05699 -0.0222471 0)
(1.0537 -0.019615 0)
(1.05085 -0.0169741 0)
(1.04843 -0.0143352 0)
(1.04643 -0.011705 0)
(1.04484 -0.00908654 0)
(1.04366 -0.00648003 0)
(1.04287 -0.00388357 0)
(1.04248 -0.00129376 0)
(1.12101 -0.0345296 0)
(1.11399 -0.0344322 0)
(1.1071 -0.0339335 0)
(1.10041 -0.0330789 0)
(1.09398 -0.0319156 0)
(1.08787 -0.030491 0)
(1.0821 -0.0288507 0)
(1.07673 -0.0270374 0)
(1.07176 -0.0250897 0)
(1.06721 -0.0230415 0)
(1.06308 -0.0209215 0)
(1.05939 -0.0187532 0)
(1.05612 -0.0165555 0)
(1.05328 -0.0143424 0)
(1.05086 -0.0121242 0)
(1.04885 -0.00990757 0)
(1.04725 -0.00769607 0)
(1.04606 -0.00549102 0)
(1.04527 -0.00329189 0)
(1.04487 -0.00109682 0)
(1.12086 -0.0276664 0)
(1.11422 -0.027638 0)
(1.10768 -0.0272861 0)
(1.10129 -0.0266457 0)
(1.09512 -0.0257533 0)
(1.08922 -0.0246456 0)
(1.08364 -0.0233582 0)
(1.07841 -0.0219247 0)
(1.07355 -0.0203758 0)
(1.06908 -0.0187386 0)
(1.06501 -0.0170364 0)
(1.06136 -0.0152887 0)
(1.05812 -0.0135111 0)
(1.05529 -0.0117158 0)
(1.05287 -0.00991173 0)
(1.05086 -0.00810492 0)
(1.04926 -0.00629911 0)
(1.04806 -0.0044961 0)
(1.04726 -0.00269614 0)
(1.04687 -0.000898437 0)
(1.12071 -0.0211583 0)
(1.11437 -0.021167 0)
(1.10809 -0.020927 0)
(1.10194 -0.0204643 0)
(1.09598 -0.0198061 0)
(1.09026 -0.0189796 0)
(1.08483 -0.0180116 0)
(1.07971 -0.0169273 0)
(1.07495 -0.01575 0)
(1.07055 -0.0145005 0)
(1.06653 -0.0131968 0)
(1.06291 -0.011854 0)
(1.0597 -0.0104845 0)
(1.05688 -0.00909804 0)
(1.05447 -0.0077019 0)
(1.05246 -0.00630124 0)
(1.05086 -0.00489936 0)
(1.04966 -0.00349811 0)
(1.04886 -0.00209812 0)
(1.04846 -0.000699233 0)
(1.12057 -0.0149227 0)
(1.11446 -0.0149443 0)
(1.10838 -0.0147902 0)
(1.10241 -0.0144782 0)
(1.0966 -0.0140268 0)
(1.09101 -0.013455 0)
(1.08569 -0.0127811 0)
(1.08067 -0.0120228 0)
(1.07597 -0.0111964 0)
(1.07163 -0.0103166 0)
(1.06766 -0.0093962 0)
(1.06407 -0.00844596 0)
(1.06087 -0.00747484 0)
(1.05807 -0.00648993 0)
(1.05567 -0.00549661 0)
(1.05366 -0.00449877 0)
(1.05206 -0.003499 0)
(1.05086 -0.00249885 0)
(1.05006 -0.00149902 0)
(1.04966 -0.000499611 0)
(1.12047 -0.00887991 0)
(1.1145 -0.00889734 0)
(1.10856 -0.00881119 0)
(1.1027 -0.00863121 0)
(1.097 -0.00836788 0)
(1.09151 -0.00803211 0)
(1.08626 -0.00763477 0)
(1.0813 -0.00718624 0)
(1.07665 -0.00669621 0)
(1.07235 -0.00617339 0)
(1.0684 -0.00562542 0)
(1.06484 -0.00505883 0)
(1.06165 -0.004479 0)
(1.05886 -0.00389024 0)
(1.05646 -0.00329584 0)
(1.05446 -0.00269823 0)
(1.05286 -0.00209904 0)
(1.05166 -0.00149928 0)
(1.05086 -0.000899488 0)
(1.05046 -0.000299808 0)
(1.12042 -0.0029485 0)
(1.11452 -0.00295438 0)
(1.10864 -0.00292654 0)
(1.10285 -0.00286775 0)
(1.0972 -0.00278125 0)
(1.09175 -0.00267057 0)
(1.08654 -0.0025393 0)
(1.08161 -0.00239086 0)
(1.07699 -0.00222848 0)
(1.0727 -0.00205504 0)
(1.06877 -0.00187309 0)
(1.06522 -0.00168481 0)
(1.06204 -0.00149201 0)
(1.05925 -0.00129612 0)
(1.05686 -0.00109825 0)
(1.05486 -0.000899228 0)
(1.05326 -0.00069961 0)
(1.05206 -0.00049975 0)
(1.05126 -0.000299837 0)
(1.05086 -0.0000999413 0)
(1.31243 -0.0163317 -0.00000000000000000000112733)
(1.30648 -0.0526954 0.00000000000000000000110544)
(1.29473 -0.0878611 0.00000000000000000000157411)
(1.27742 -0.121108 0.00000000000000000000431647)
(1.25482 -0.151783 0.00000000000000000000847336)
(1.22728 -0.179276 -0.0000000000000000000695113)
(1.19519 -0.202924 0)
(1.15912 -0.221576 0)
(1.12028 -0.231351 0.00000000000000000000189359)
(1.08057 -0.236475 0.00000000000000000000182623)
(1.29106 -0.0137139 0.000000000000000000000454444)
(1.28621 -0.0449581 0)
(1.27669 -0.0753338 0.0000000000000000000150043)
(1.26283 -0.104376 -0.00000000000000000000213518)
(1.24505 -0.131724 0)
(1.22377 -0.157074 -0.0000000000000000000335175)
(1.1992 -0.179898 0.0000000000000000000409389)
(1.17093 -0.198532 -0.00000000000000000000395001)
(1.13858 -0.208853 0)
(1.10362 -0.215789 -0.0000000000000000000573628)
(1.27262 -0.0115755 0.000000000000000000000229393)
(1.26868 -0.0386065 0.0000000000000000000024494)
(1.26093 -0.0650566 -0.0000000000000000000015191)
(1.24961 -0.0906086 -0.0000000000000000000132765)
(1.23495 -0.114951 0.00000000000000000000417211)
(1.21705 -0.137609 0.00000000000000000000410941)
(1.19569 -0.157552 0.0000000000000000000429347)
(1.17059 -0.172775 -0.0000000000000000000457552)
(1.14325 -0.18208 0.000000000000000000049521)
(1.11563 -0.191815 -0.0000000000000000000620873)
(1.25656 -0.0098268 -0.000000000000000000000206333)
(1.25332 -0.0333593 0.000000000000000000000186142)
(1.24688 -0.0564876 -0.0000000000000000000122721)
(1.23732 -0.0789303 -0.000000000000000000000847501)
(1.22466 -0.100275 0)
(1.20877 -0.119796 0)
(1.18954 -0.136324 0.00000000000000000000401809)
(1.16752 -0.148802 -0.0000000000000000000439165)
(1.14472 -0.158836 0.000000000000000000055586)
(1.12222 -0.170326 0.00000000000000000000189798)
(1.24248 -0.00837888 -0.0000000000000000000000155723)
(1.23973 -0.0289463 -0.000000000000000000000346965)
(1.23418 -0.0491685 -0.00000000000000000000402606)
(1.2258 -0.0687303 0.0000000000000000000132465)
(1.21449 -0.087117 0.00000000000000000000821159)
(1.2002 -0.103558 0.0000000000000000000200516)
(1.18317 -0.11727 -0.00000000000000000000399807)
(1.16441 -0.128388 -0.00000000000000000000393359)
(1.14532 -0.139309 -0.0000000000000000000483991)
(1.12611 -0.151056 -0.0000000000000000000532875)
(1.23006 -0.00715547 0.000000000000000000000578612)
(1.22765 -0.0251498 -0.00000000000000000000207887)
(1.22272 -0.0427777 -0.000000000000000000000604085)
(1.21519 -0.0596834 -0.00000000000000000000205607)
(1.205 -0.0753422 0)